           3
 Step:          10
Ar   -1.746837   -1.239209    0.000000
Ar    2.160535   -1.049734    0.000000
Ar    0.086302    2.288943    0.000000
           3
 Step:          20
Ar   -2.024401   -1.515827    0.000000
Ar    2.325560   -1.087722    0.000000
Ar    0.198841    2.603549    0.000000
           3
 Step:          30
Ar   -2.211377   -1.739062    0.000000
Ar    2.391189   -1.072856    0.000000
Ar    0.320188    2.811918    0.000000
           3
 Step:          40
Ar   -2.328257   -1.927020    0.000000
Ar    2.370391   -1.006695    0.000000
Ar    0.457866    2.933715    0.000000
           3
 Step:          50
Ar   -2.387748   -2.088458    0.000000
Ar    2.272562   -0.888931    0.000000
Ar    0.615186    2.977388    0.000000
           3
 Step:          60
Ar   -2.394301   -2.225787    0.000000
Ar    2.102549   -0.721112    0.000000
Ar    0.791752    2.946898    0.000000
           3
 Step:          70
Ar   -2.346827   -2.337108    0.000000
Ar    1.880237   -0.562389    0.000000
Ar    0.966591    2.899497    0.000000
           3
 Step:          80
Ar   -2.239869   -2.417341    0.000000
Ar    1.650213   -0.613504    0.000000
Ar    1.089656    3.030844    0.000000
           3
 Step:          90
Ar   -2.069076   -2.463051    0.000000
Ar    1.381563   -0.798292    0.000000
Ar    1.187513    3.261343    0.000000
           3
 Step:         100
Ar   -1.933645   -2.522879    0.000000
Ar    1.149980   -0.911800    0.000000
Ar    1.283665    3.434679    0.000000
           3
 Step:         110
Ar   -2.081125   -2.727578    0.000000
Ar    1.205545   -0.807095    0.000000
Ar    1.375581    3.534673    0.000000
           3
 Step:         120
Ar   -2.278213   -2.956132    0.000000
Ar    1.315235   -0.606525    0.000000
Ar    1.462978    3.562657    0.000000
           3
 Step:         130
Ar   -2.420202   -3.147100    0.000000
Ar    1.373622   -0.374501    0.000000
Ar    1.546580    3.521601    0.000000
           3
 Step:         140
Ar   -2.518355   -3.305172    0.000000
Ar    1.389732   -0.157268    0.000000
Ar    1.628623    3.462440    0.000000
           3
 Step:         150
Ar   -2.585630   -3.437763    0.000000
Ar    1.365769   -0.106482    0.000000
Ar    1.719861    3.544245    0.000000
           3
 Step:         160
Ar   -2.627507   -3.548398    0.000000
Ar    1.307341   -0.188050    0.000000
Ar    1.820166    3.736448    0.000000
           3
 Step:         170
Ar   -2.644782   -3.637541    0.000000
Ar    1.229829   -0.255759    0.000000
Ar    1.914953    3.893300    0.000000
           3
 Step:         180
Ar   -2.636990   -3.704401    0.000000
Ar    1.138903   -0.277512    0.000000
Ar    1.998086    3.981912    0.000000
           3
 Step:         190
Ar   -2.603398   -3.747494    0.000000
Ar    1.036166   -0.255070    0.000000
Ar    2.067232    4.002564    0.000000
           3
 Step:         200
Ar   -2.543117   -3.764656    0.000000
Ar    0.923084   -0.192153    0.000000
Ar    2.120033    3.956809    0.000000
           3
 Step:         210
Ar   -2.455134   -3.752952    0.000000
Ar    0.801916   -0.091017    0.000000
Ar    2.153218    3.843969    0.000000
           3
 Step:         220
Ar   -2.338383   -3.708591    0.000000
Ar    0.674060    0.041337    0.000000
Ar    2.164323    3.667255    0.000000
           3
 Step:         230
Ar   -2.191630   -3.626568    0.000000
Ar    0.526361    0.162523    0.000000
Ar    2.165270    3.464045    0.000000
           3
 Step:         240
Ar   -2.012205   -3.498639    0.000000
Ar    0.307459    0.163106    0.000000
Ar    2.204746    3.335533    0.000000
           3
 Step:         250
Ar   -1.797456   -3.314843    0.000000
Ar    0.015461    0.041578    0.000000
Ar    2.281995    3.273265    0.000000
           3
 Step:         260
Ar   -1.606446   -3.184591    0.000000
Ar   -0.231558    0.002730    0.000000
Ar    2.338004    3.181861    0.000000
           3
 Step:         270
Ar   -1.545792   -3.354938    0.000000
Ar   -0.309557    0.312939    0.000000
Ar    2.355349    3.041999    0.000000
           3
 Step:         280
Ar   -1.496302   -3.549977    0.000000
Ar   -0.393083    0.635896    0.000000
Ar    2.389384    2.914081    0.000000
           3
 Step:         290
Ar   -1.428609   -3.678511    0.000000
Ar   -0.618480    0.792369    0.000000
Ar    2.547090    2.886143    0.000000
           3
 Step:         300
Ar   -1.348791   -3.745386    0.000000
Ar   -0.879511    0.869609    0.000000
Ar    2.728302    2.875777    0.000000
           3
 Step:         310
Ar   -1.262103   -3.755011    0.000000
Ar   -1.092215    0.921286    0.000000
Ar    2.854318    2.833725    0.000000
           3
 Step:         320
Ar   -1.172253   -3.709146    0.000000
Ar   -1.246790    0.948605    0.000000
Ar    2.919043    2.760541    0.000000
           3
 Step:         330
Ar   -1.081966   -3.606419    0.000000
Ar   -1.344899    0.945389    0.000000
Ar    2.926865    2.661030    0.000000
           3
 Step:         340
Ar   -0.993540   -3.441462    0.000000
Ar   -1.386025    0.903990    0.000000
Ar    2.879565    2.537473    0.000000
           3
 Step:         350
Ar   -0.908957   -3.206249    0.000000
Ar   -1.365572    0.817028    0.000000
Ar    2.774530    2.389222    0.000000
           3
 Step:         360
Ar   -0.826161   -2.918461    0.000000
Ar   -1.278698    0.705954    0.000000
Ar    2.604858    2.212507    0.000000
           3
 Step:         370
Ar   -0.719113   -2.768881    0.000000
Ar   -1.152407    0.764196    0.000000
Ar    2.371520    2.004685    0.000000
           3
 Step:         380
Ar   -0.574319   -2.833095    0.000000
Ar   -1.158268    1.020561    0.000000
Ar    2.232587    1.812534    0.000000
           3
 Step:         390
Ar   -0.420111   -2.870012    0.000000
Ar   -1.477870    1.191836    0.000000
Ar    2.397981    1.678177    0.000000
           3
 Step:         400
Ar   -0.269139   -2.819882    0.000000
Ar   -1.789302    1.293770    0.000000
Ar    2.558440    1.526112    0.000000
           3
 Step:         410
Ar   -0.124070   -2.679973    0.000000
Ar   -2.011836    1.336124    0.000000
Ar    2.635906    1.343849    0.000000
           3
 Step:         420
Ar    0.018333   -2.443996    0.000000
Ar   -2.150799    1.319277    0.000000
Ar    2.632466    1.124719    0.000000
           3
 Step:         430
Ar    0.163024   -2.099265    0.000000
Ar   -2.206919    1.241362    0.000000
Ar    2.543895    0.857903    0.000000
           3
 Step:         440
Ar    0.192389   -1.800241    0.000000
Ar   -2.180663    1.111907    0.000000
Ar    2.488274    0.688333    0.000000
           3
 Step:         450
Ar   -0.088965   -1.920858    0.000000
Ar   -2.135741    1.020498    0.000000
Ar    2.724706    0.900361    0.000000
           3
 Step:         460
Ar   -0.274159   -2.202879    0.000000
Ar   -2.151835    1.078593    0.000000
Ar    2.925994    1.124286    0.000000
           3
 Step:         470
Ar   -0.398765   -2.477683    0.000000
Ar   -2.154101    1.170081    0.000000
Ar    3.052866    1.307602    0.000000
           3
 Step:         480
Ar   -0.524029   -2.676844    0.000000
Ar   -2.101908    1.212043    0.000000
Ar    3.125937    1.464801    0.000000
           3
 Step:         490
Ar   -0.660961   -2.795399    0.000000
Ar   -1.993980    1.191152    0.000000
Ar    3.154941    1.604248    0.000000
           3
 Step:         500
Ar   -0.809889   -2.836312    0.000000
Ar   -1.831998    1.106837    0.000000
Ar    3.141887    1.729475    0.000000
           3
 Step:         510
Ar   -0.966183   -2.810109    0.000000
Ar   -1.616950    0.969379    0.000000
Ar    3.083132    1.840731    0.000000
           3
 Step:         520
Ar   -1.116522   -2.781848    0.000000
Ar   -1.353015    0.846810    0.000000
Ar    2.969537    1.935037    0.000000
           3
 Step:         530
Ar   -1.253733   -2.871283    0.000000
Ar   -1.034637    0.864618    0.000000
Ar    2.788370    2.006666    0.000000
           3
 Step:         540
Ar   -1.385411   -3.007888    0.000000
Ar   -0.702346    0.939296    0.000000
Ar    2.587757    2.068592    0.000000
           3
 Step:         550
Ar   -1.504135   -3.092024    0.000000
Ar   -0.709678    0.850513    0.000000
Ar    2.713813    2.241512    0.000000
           3
 Step:         560
Ar   -1.608903   -3.118867    0.000000
Ar   -0.874721    0.653739    0.000000
Ar    2.983625    2.465128    0.000000
           3
 Step:         570
Ar   -1.710644   -3.139168    0.000000
Ar   -0.985935    0.478970    0.000000
Ar    3.196580    2.660198    0.000000
           3
 Step:         580
Ar   -1.826699   -3.236341    0.000000
Ar   -1.034832    0.406981    0.000000
Ar    3.361532    2.829360    0.000000
           3
 Step:         590
Ar   -1.953181   -3.386791    0.000000
Ar   -1.038809    0.407933    0.000000
Ar    3.491991    2.978858    0.000000
           3
 Step:         600
Ar   -2.072409   -3.510660    0.000000
Ar   -1.022700    0.398321    0.000000
Ar    3.595109    3.112340    0.000000
           3
 Step:         610
Ar   -2.175570   -3.576616    0.000000
Ar   -0.999869    0.344560    0.000000
Ar    3.675439    3.232056    0.000000
           3
 Step:         620
Ar   -2.259626   -3.580034    0.000000
Ar   -0.976976    0.240379    0.000000
Ar    3.736602    3.339655    0.000000
           3
 Step:         630
Ar   -2.325307   -3.529290    0.000000
Ar   -0.956478    0.092758    0.000000
Ar    3.781785    3.436533    0.000000
           3
 Step:         640
Ar   -2.385674   -3.463788    0.000000
Ar   -0.928127   -0.060165    0.000000
Ar    3.813801    3.523954    0.000000
           3
 Step:         650
Ar   -2.475126   -3.465050    0.000000
Ar   -0.859625   -0.137834    0.000000
Ar    3.834751    3.602884    0.000000
           3
 Step:         660
Ar   -2.596845   -3.534527    0.000000
Ar   -0.748697   -0.139085    0.000000
Ar    3.845543    3.673612    0.000000
           3
 Step:         670
Ar   -2.711708   -3.592771    0.000000
Ar   -0.634408   -0.142993    0.000000
Ar    3.846116    3.735764    0.000000
           3
 Step:         680
Ar   -2.797280   -3.602770    0.000000
Ar   -0.538953   -0.186017    0.000000
Ar    3.836233    3.788787    0.000000
           3
 Step:         690
Ar   -2.846840   -3.558411    0.000000
Ar   -0.469129   -0.273910    0.000000
Ar    3.815968    3.832320    0.000000
           3
 Step:         700
Ar   -2.860917   -3.464980    0.000000
Ar   -0.424903   -0.401366    0.000000
Ar    3.785821    3.866346    0.000000
           3
 Step:         710
Ar   -2.856584   -3.347762    0.000000
Ar   -0.390035   -0.543415    0.000000
Ar    3.746619    3.891177    0.000000
           3
 Step:         720
Ar   -2.887266   -3.269097    0.000000
Ar   -0.311893   -0.638056    0.000000
Ar    3.699158    3.907152    0.000000
           3
 Step:         730
Ar   -2.978272   -3.252629    0.000000
Ar   -0.165348   -0.661351    0.000000
Ar    3.643620    3.913980    0.000000
           3
 Step:         740
Ar   -3.071876   -3.239476    0.000000
Ar   -0.007499   -0.670891    0.000000
Ar    3.579375    3.910368    0.000000
           3
 Step:         750
Ar   -3.126038   -3.193433    0.000000
Ar    0.120572   -0.701025    0.000000
Ar    3.505466    3.894458    0.000000
           3
 Step:         760
Ar   -3.128700   -3.107780    0.000000
Ar    0.207643   -0.756594    0.000000
Ar    3.421057    3.864374    0.000000
           3
 Step:         770
Ar   -3.079249   -2.985220    0.000000
Ar    0.253675   -0.833275    0.000000
Ar    3.325574    3.818495    0.000000
           3
 Step:         780
Ar   -2.992317   -2.838000    0.000000
Ar    0.273659   -0.917492    0.000000
Ar    3.218658    3.755492    0.000000
           3
 Step:         790
Ar   -2.923806   -2.700605    0.000000
Ar    0.323932   -0.973300    0.000000
Ar    3.099874    3.673905    0.000000
           3
 Step:         800
Ar   -2.932770   -2.604028    0.000000
Ar    0.464786   -0.966655    0.000000
Ar    2.967984    3.570682    0.000000
           3
 Step:         810
Ar   -2.968291   -2.520474    0.000000
Ar    0.648207   -0.918387    0.000000
Ar    2.820084    3.438861    0.000000
           3
 Step:         820
Ar   -2.965070   -2.419380    0.000000
Ar    0.813623   -0.846739    0.000000
Ar    2.651447    3.266119    0.000000
           3
 Step:         830
Ar   -2.901344   -2.292315    0.000000
Ar    0.944764   -0.743689    0.000000
Ar    2.456580    3.036004    0.000000
           3
 Step:         840
Ar   -2.772549   -2.137867    0.000000
Ar    1.029679   -0.625175    0.000000
Ar    2.242870    2.763042    0.000000
           3
 Step:         850
Ar   -2.584016   -1.957939    0.000000
Ar    0.990196   -0.724388    0.000000
Ar    2.093820    2.682328    0.000000
           3
 Step:         860
Ar   -2.458007   -1.791483    0.000000
Ar    0.947003   -1.018981    0.000000
Ar    2.011003    2.810464    0.000000
           3
 Step:         870
Ar   -2.620229   -1.687483    0.000000
Ar    1.204705   -1.215053    0.000000
Ar    1.915524    2.902537    0.000000
           3
 Step:         880
Ar   -2.805720   -1.585200    0.000000
Ar    1.502667   -1.336530    0.000000
Ar    1.803053    2.921730    0.000000
           3
 Step:         890
Ar   -2.920379   -1.473581    0.000000
Ar    1.740405   -1.392012    0.000000
Ar    1.679973    2.865593    0.000000
           3
 Step:         900
Ar   -2.973813   -1.354758    0.000000
Ar    1.922449   -1.378573    0.000000
Ar    1.551363    2.733331    0.000000
           3
 Step:         910
Ar   -2.975506   -1.228472    0.000000
Ar    2.055554   -1.300362    0.000000
Ar    1.419952    2.528834    0.000000
           3
 Step:         920
Ar   -2.927632   -1.092242    0.000000
Ar    2.151129   -1.211337    0.000000
Ar    1.276503    2.303579    0.000000
           3
 Step:         930
Ar   -2.825461   -0.941410    0.000000
Ar    2.249523   -1.265678    0.000000
Ar    1.075938    2.207089    0.000000
           3
 Step:         940
Ar   -2.658662   -0.768662    0.000000
Ar    2.347624   -1.427654    0.000000
Ar    0.811038    2.196316    0.000000
           3
 Step:         950
Ar   -2.411260   -0.562678    0.000000
Ar    2.396835   -1.557427    0.000000
Ar    0.514425    2.120104    0.000000
           3
 Step:         960
Ar   -2.135409   -0.380217    0.000000
Ar    2.374014   -1.619573    0.000000
Ar    0.261395    1.999790    0.000000
           3
 Step:         970
Ar   -2.182112   -0.584548    0.000000
Ar    2.265759   -1.607514    0.000000
Ar    0.416353    2.192062    0.000000
           3
 Step:         980
Ar   -2.256273   -0.889323    0.000000
Ar    2.068749   -1.519197    0.000000
Ar    0.687524    2.408520    0.000000
           3
 Step:         990
Ar   -2.223020   -1.157343    0.000000
Ar    1.783112   -1.357576    0.000000
Ar    0.939908    2.514919    0.000000
           3
 Step:        1000
Ar   -2.124442   -1.394088    0.000000
Ar    1.452609   -1.154537    0.000000
Ar    1.171834    2.548625    0.000000
